#NP 10*10*20
#second line will be skipped

31356     atoms
20904     bonds
10452    angles
0  dihedrals
0  impropers

7 atom types
1 bond types
1 angle types
0  dihedral types
0  improper types

0.70 78.26 xlo xhi
0.70 78.91 ylo yhi
-19.63 0.00 zlo zhi

Masses

1 1.0
2 1.0
3 1.0
4 1.0
5 1.0
6 1.0
7 1.0

Atoms

1 0 3 0.0 36.190 13.978 -10.961 
2 0 2 0.0 36.444 13.694 -11.967 
3 0 2 0.0 36.800 13.809 -12.744 
4 1 3 0.0 24.106 22.397 -17.071 
5 1 2 0.0 24.008 22.208 -16.112 
6 1 2 0.0 24.098 22.099 -15.150 
7 2 3 0.0 24.228 28.272 -12.364 
8 2 2 0.0 24.332 28.114 -13.321 
9 2 2 0.0 24.323 28.077 -14.246 
10 3 1 0.0 13.104 37.457 -15.529 
11 3 2 0.0 13.636 37.320 -14.756 
12 3 2 0.0 14.147 37.199 -13.972 
13 4 3 0.0 3.908 20.256 -9.887 
14 4 2 0.0 3.916 20.104 -10.803 
15 4 2 0.0 4.057 19.970 -11.740 
16 5 3 0.0 24.267 2.301 -18.481 
17 5 2 0.0 24.429 2.219 -17.477 
18 5 2 0.0 24.248 2.452 -16.561 
19 6 3 0.0 40.812 2.978 -11.018 
20 6 2 0.0 41.087 2.922 -12.023 
21 6 2 0.0 41.443 2.771 -12.894 
22 7 3 0.0 10.664 9.751 -9.512 
23 7 2 0.0 10.745 10.028 -10.392 
24 7 2 0.0 10.586 10.436 -11.280 
25 8 3 0.0 16.360 34.314 -11.474 
26 8 2 0.0 16.359 34.022 -12.400 
27 8 2 0.0 16.459 33.675 -13.269 
28 9 3 0.0 22.611 72.793 -14.886 
29 9 2 0.0 22.036 72.733 -15.662 
30 9 2 0.0 21.275 72.689 -16.259 
31 10 3 0.0 31.365 38.243 -12.861 
32 10 2 0.0 31.306 38.753 -13.680 
33 10 2 0.0 30.909 39.296 -14.323 
34 11 3 0.0 19.929 5.997 -17.567 
35 11 2 0.0 20.165 5.468 -16.801 
36 11 2 0.0 20.362 4.955 -16.065 
37 12 3 0.0 9.590 17.389 -14.490 
38 12 2 0.0 10.296 17.566 -13.749 
39 12 2 0.0 10.770 17.570 -12.961 
40 13 3 0.0 66.539 30.309 -9.672 
41 13 2 0.0 66.736 30.423 -10.599 
42 13 2 0.0 66.696 30.455 -11.557 
43 14 3 0.0 16.736 29.832 -12.356 
44 14 2 0.0 16.383 29.873 -13.267 
45 14 2 0.0 15.887 29.778 -14.074 
46 15 3 0.0 29.761 73.589 -18.747 
47 15 2 0.0 29.240 73.327 -17.986 
48 15 2 0.0 28.796 73.121 -17.197 
49 16 3 0.0 44.242 8.218 -10.536 
50 16 2 0.0 44.467 8.420 -11.461 
51 16 2 0.0 44.583 8.304 -12.426 
52 17 1 0.0 75.254 76.414 -14.838 
53 17 2 0.0 74.990 76.363 -13.917 
54 17 2 0.0 74.910 76.079 -13.037 
55 18 3 0.0 12.603 67.605 -17.782 
56 18 2 0.0 12.585 67.380 -16.817 
57 18 2 0.0 12.456 67.192 -15.881 
58 19 3 0.0 65.335 4.569 -11.368 
59 19 2 0.0 64.674 4.990 -10.803 
60 19 2 0.0 64.064 5.461 -10.164 
61 20 3 0.0 16.385 57.598 -15.290 
62 20 2 0.0 16.818 57.805 -14.513 
63 20 2 0.0 17.327 57.754 -13.741 
64 21 1 0.0 78.013 4.306 -14.376 
65 21 2 0.0 0.838 3.865 -13.599 
66 21 2 0.0 1.086 3.534 -12.727 
67 22 1 0.0 48.582 60.008 -12.308 
68 22 2 0.0 48.807 59.931 -13.219 
69 22 2 0.0 48.973 60.050 -14.171 
70 23 1 0.0 11.325 34.550 -14.918 
71 23 2 0.0 11.959 34.262 -14.208 
72 23 2 0.0 12.433 34.339 -13.372 
73 24 3 0.0 31.491 6.004 -12.932 
74 24 2 0.0 31.875 5.901 -13.766 
75 24 2 0.0 31.961 5.695 -14.751 
76 25 1 0.0 36.249 76.285 -13.218 
77 25 2 0.0 36.105 75.921 -14.095 
78 25 2 0.0 36.257 75.805 -15.016 
79 26 3 0.0 20.804 8.947 -12.367 
80 26 2 0.0 20.674 9.043 -13.308 
81 26 2 0.0 20.291 9.006 -14.237 
82 27 1 0.0 45.685 4.105 -14.813 
83 27 2 0.0 45.409 4.283 -13.858 
84 27 2 0.0 45.437 4.729 -13.005 
85 28 1 0.0 40.349 64.113 -18.982 
86 28 2 0.0 40.288 63.961 -18.055 
87 28 2 0.0 40.550 63.780 -17.146 
88 29 3 0.0 47.154 8.091 -14.199 
89 29 2 0.0 46.733 8.106 -13.301 
90 29 2 0.0 46.483 8.013 -12.370 
91 30 1 0.0 7.242 77.895 -10.546 
92 30 2 0.0 7.310 77.848 -11.521 
93 30 2 0.0 7.469 77.558 -12.383 
94 31 3 0.0 51.062 8.808 -9.251 
95 31 2 0.0 51.431 8.630 -10.116 
96 31 2 0.0 51.537 8.481 -11.062 
97 32 3 0.0 51.279 10.692 -10.418 
98 32 2 0.0 51.661 11.333 -10.992 
99 32 2 0.0 51.977 12.052 -11.621 
100 33 3 0.0 10.460 57.102 -14.632 
101 33 2 0.0 10.200 57.445 -13.737 
102 33 2 0.0 9.964 57.748 -12.889 
103 34 1 0.0 15.856 5.948 -16.908 
104 34 2 0.0 15.993 5.809 -15.952 
105 34 2 0.0 16.309 5.465 -15.064 
106 35 3 0.0 1.622 1.094 -15.612 
107 35 2 0.0 1.620 0.845 -14.686 
108 35 2 0.0 1.826 0.873 -13.734 
109 36 1 0.0 49.425 28.154 -11.941 
110 36 2 0.0 49.122 28.086 -12.805 
111 36 2 0.0 48.747 27.905 -13.671 
112 37 3 0.0 22.322 27.664 -16.505 
113 37 2 0.0 22.253 27.804 -15.519 
114 37 2 0.0 22.314 28.150 -14.644 
115 38 3 0.0 41.786 26.439 -11.871 
116 38 2 0.0 41.973 26.174 -12.758 
117 38 2 0.0 42.013 25.864 -13.612 
118 39 3 0.0 40.510 4.735 -15.677 
119 39 2 0.0 41.000 4.394 -14.905 
120 39 2 0.0 41.440 4.337 -14.043 
121 40 3 0.0 36.494 17.689 -11.560 
122 40 2 0.0 36.582 17.550 -12.515 
123 40 2 0.0 36.586 17.444 -13.483 
124 41 3 0.0 48.430 9.054 -9.580 
125 41 2 0.0 48.897 8.613 -10.285 
126 41 2 0.0 49.567 8.518 -10.931 
127 42 3 0.0 55.614 77.305 -13.193 
128 42 2 0.0 55.778 76.874 -12.254 
129 42 2 0.0 55.669 76.547 -11.338 
130 43 1 0.0 49.172 23.602 -15.163 
131 43 2 0.0 49.447 23.466 -14.226 
132 43 2 0.0 50.150 23.477 -13.616 
133 44 3 0.0 38.139 13.983 -10.050 
134 44 2 0.0 38.459 13.818 -10.973 
135 44 2 0.0 38.911 14.055 -11.778 
136 45 3 0.0 46.595 66.941 -17.532 
137 45 2 0.0 46.330 66.939 -16.638 
138 45 2 0.0 46.249 67.186 -15.733 
139 46 3 0.0 44.904 20.867 -9.647 
140 46 2 0.0 44.793 21.014 -10.583 
141 46 2 0.0 44.839 21.009 -11.527 
142 47 1 0.0 26.691 47.623 -16.277 
143 47 2 0.0 26.711 47.571 -15.319 
144 47 2 0.0 26.852 47.330 -14.459 
145 48 3 0.0 41.119 3.897 -11.455 
146 48 2 0.0 41.533 3.970 -12.283 
147 48 2 0.0 42.026 4.230 -13.103 
148 49 3 0.0 52.902 20.456 -14.893 
149 49 2 0.0 52.747 20.444 -13.954 
150 49 2 0.0 52.541 20.398 -13.084 
151 50 3 0.0 34.276 19.362 -11.817 
152 50 2 0.0 34.669 19.337 -12.688 
153 50 2 0.0 34.882 19.696 -13.520 
154 51 3 0.0 52.998 33.983 -16.352 
155 51 2 0.0 53.156 33.707 -15.494 
156 51 2 0.0 53.126 33.567 -14.519 
157 52 3 0.0 43.080 68.344 -18.583 
158 52 2 0.0 42.881 68.388 -17.650 
159 52 2 0.0 42.551 68.292 -16.669 
160 53 3 0.0 38.154 3.044 -16.222 
161 53 2 0.0 38.101 2.996 -15.231 
162 53 2 0.0 37.776 2.972 -14.325 
163 54 1 0.0 71.201 32.453 -9.191 
164 54 2 0.0 71.332 32.626 -10.178 
165 54 2 0.0 71.308 33.073 -11.047 
166 55 1 0.0 65.832 4.265 -12.832 
167 55 2 0.0 66.103 4.140 -11.887 
168 55 2 0.0 66.325 4.082 -10.978 
169 56 3 0.0 42.941 8.419 -10.374 
170 56 2 0.0 43.213 8.549 -11.270 
171 56 2 0.0 43.669 8.610 -12.156 
172 57 3 0.0 31.566 25.212 -17.097 
173 57 2 0.0 31.268 25.369 -16.169 
174 57 2 0.0 30.929 25.482 -15.303 
175 58 3 0.0 6.145 67.463 -12.151 
176 58 2 0.0 5.768 67.712 -13.039 
177 58 2 0.0 5.686 67.822 -13.981 
178 59 3 0.0 46.536 25.159 -15.100 
179 59 2 0.0 46.261 25.163 -14.123 
180 59 2 0.0 46.325 25.346 -13.139 
181 60 1 0.0 50.632 19.968 -9.688 
182 60 2 0.0 50.661 19.700 -10.628 
183 60 2 0.0 50.603 19.702 -11.624 
184 61 1 0.0 32.575 29.231 -16.874 
185 61 2 0.0 32.932 28.984 -16.001 
186 61 2 0.0 33.336 28.495 -15.270 
187 62 1 0.0 42.317 75.750 -16.813 
188 62 2 0.0 41.965 75.284 -16.066 
189 62 2 0.0 41.676 75.150 -15.220 
190 63 3 0.0 67.981 71.531 -9.633 
191 63 2 0.0 67.803 71.833 -10.523 
192 63 2 0.0 67.635 72.489 -11.175 
193 64 1 0.0 47.969 26.744 -15.172 
194 64 2 0.0 47.877 26.716 -14.274 
195 64 2 0.0 47.916 26.390 -13.416 
196 65 3 0.0 33.144 23.038 -12.799 
197 65 2 0.0 33.289 22.897 -13.777 
198 65 2 0.0 33.740 23.322 -14.514 
199 66 3 0.0 65.495 24.575 -10.027 
200 66 2 0.0 65.792 24.947 -10.879 
201 66 2 0.0 66.101 25.214 -11.672 
202 67 1 0.0 35.120 78.879 -12.681 
203 67 2 0.0 35.497 78.631 -13.491 
204 67 2 0.0 36.035 78.381 -14.177 
205 68 3 0.0 49.570 18.438 -14.645 
206 68 2 0.0 49.620 18.575 -13.675 
207 68 2 0.0 49.599 18.796 -12.751 
208 69 1 0.0 16.876 9.900 -16.640 
209 69 2 0.0 16.991 9.665 -15.649 
210 69 2 0.0 16.968 9.426 -14.738 
211 70 1 0.0 42.371 23.616 -15.660 
212 70 2 0.0 42.117 23.764 -14.719 
213 70 2 0.0 41.886 23.751 -13.807 
214 71 1 0.0 74.208 3.974 -8.428 
215 71 2 0.0 74.083 3.347 -9.170 
216 71 2 0.0 74.175 2.915 -10.094 
217 72 3 0.0 52.027 15.600 -12.078 
218 72 2 0.0 52.983 15.810 -11.838 
219 72 2 0.0 53.905 15.923 -11.573 
220 73 1 0.0 59.250 6.949 -13.546 
221 73 2 0.0 59.672 6.525 -12.761 
222 73 2 0.0 59.992 6.429 -11.887 
223 74 3 0.0 40.301 14.149 -9.906 
224 74 2 0.0 40.150 13.936 -10.881 
225 74 2 0.0 39.955 13.950 -11.792 
226 75 3 0.0 70.321 13.640 -13.153 
227 75 2 0.0 70.618 13.830 -12.266 
228 75 2 0.0 70.886 14.124 -11.377 
229 76 3 0.0 64.797 19.040 -13.319 
230 76 2 0.0 64.753 18.847 -12.408 
231 76 2 0.0 64.521 18.646 -11.478 
232 77 3 0.0 61.247 2.764 -12.370 
233 77 2 0.0 61.667 2.589 -11.552 
234 77 2 0.0 61.984 2.309 -10.747 
235 78 3 0.0 42.689 30.050 -12.195 
236 78 2 0.0 42.675 29.820 -13.106 
237 78 2 0.0 42.640 29.729 -14.068 
238 79 3 0.0 67.833 76.324 -12.694 
239 79 2 0.0 67.706 76.739 -11.793 
240 79 2 0.0 67.634 77.150 -10.926 
241 80 3 0.0 71.069 16.765 -8.711 
242 80 2 0.0 71.151 16.561 -9.698 
243 80 2 0.0 70.937 16.358 -10.604 
244 81 3 0.0 67.116 26.922 -10.121 
245 81 2 0.0 67.475 26.969 -11.003 
246 81 2 0.0 68.031 26.857 -11.744 
247 82 1 0.0 76.453 59.058 -13.501 
248 82 2 0.0 76.363 59.243 -12.526 
249 82 2 0.0 76.319 59.165 -11.571 
250 83 1 0.0 12.946 31.792 -10.752 
251 83 2 0.0 12.502 31.773 -11.527 
252 83 2 0.0 12.139 31.534 -12.382 
253 84 1 0.0 9.736 74.168 -17.493 
254 84 2 0.0 9.493 73.720 -16.684 
255 84 2 0.0 9.527 73.550 -15.725 
256 85 3 0.0 3.113 4.919 -14.182 
257 85 2 0.0 3.063 4.466 -13.332 
258 85 2 0.0 2.829 3.875 -12.634 
259 86 3 0.0 68.530 18.973 -8.446 
260 86 2 0.0 68.581 18.916 -9.364 
261 86 2 0.0 68.741 18.930 -10.303 
262 87 3 0.0 62.718 75.022 -12.705 
263 87 2 0.0 62.987 74.740 -11.831 
264 87 2 0.0 63.512 74.357 -11.136 
265 88 3 0.0 68.652 67.553 -9.145 
266 88 2 0.0 69.019 67.252 -10.057 
267 88 2 0.0 69.371 67.349 -10.920 
268 89 3 0.0 1.923 4.074 -13.866 
269 89 2 0.0 2.009 3.621 -13.064 
270 89 2 0.0 1.888 3.097 -12.256 
271 90 3 0.0 57.309 4.229 -9.087 
272 90 2 0.0 57.385 4.256 -10.091 
273 90 2 0.0 57.599 4.024 -10.979 
274 91 3 0.0 5.866 21.942 -14.200 
275 91 2 0.0 6.076 22.129 -13.307 
276 91 2 0.0 6.673 22.070 -12.517 
277 92 1 0.0 72.862 20.461 -13.942 
278 92 2 0.0 72.946 20.268 -12.961 
279 92 2 0.0 73.125 20.062 -11.973 
280 93 1 0.0 31.434 10.290 -17.298 
281 93 2 0.0 31.118 10.153 -16.345 
282 93 2 0.0 30.766 10.004 -15.472 
283 94 1 0.0 67.914 66.655 -9.523 
284 94 2 0.0 67.826 66.719 -10.445 
285 94 2 0.0 68.260 66.772 -11.263 
286 95 1 0.0 13.453 5.083 -16.300 
287 95 2 0.0 14.103 4.853 -15.633 
288 95 2 0.0 14.543 4.726 -14.816 
289 96 1 0.0 9.765 8.147 -10.484 
290 96 2 0.0 9.696 8.569 -11.269 
291 96 2 0.0 9.432 9.018 -12.077 
292 97 1 0.0 75.713 5.100 -13.019 
293 97 2 0.0 76.255 4.952 -12.180 
294 97 2 0.0 77.010 4.791 -11.589 
295 98 3 0.0 48.670 2.938 -9.189 
296 98 2 0.0 48.951 3.153 -10.078 
297 98 2 0.0 49.336 3.702 -10.747 
298 99 3 0.0 59.659 56.270 -10.658 
299 99 2 0.0 59.816 56.578 -11.584 
300 99 2 0.0 59.817 56.772 -12.528 
301 100 1 0.0 78.097 65.800 -9.963 
302 100 2 0.0 77.763 65.905 -10.854 
303 100 2 0.0 77.437 66.118 -11.726 
304 101 3 0.0 13.997 11.123 -15.205 
305 101 2 0.0 14.253 11.238 -14.312 
306 101 2 0.0 14.216 11.564 -13.371 
307 102 3 0.0 15.685 33.418 -12.054 
308 102 2 0.0 15.370 33.630 -12.980 
309 102 2 0.0 15.157 33.812 -13.853 
310 103 3 0.0 47.651 3.396 -13.663 
311 103 2 0.0 47.261 3.572 -12.825 
312 103 2 0.0 47.081 3.983 -11.944 
313 104 1 0.0 5.232 21.106 -14.114 
314 104 2 0.0 5.557 21.303 -13.278 
315 104 2 0.0 5.901 21.383 -12.379 
316 105 3 0.0 3.861 53.965 -13.759 
317 105 2 0.0 3.821 54.174 -12.758 
318 105 2 0.0 3.798 54.481 -11.836 
319 106 1 0.0 10.060 11.969 -9.992 
320 106 2 0.0 9.751 11.981 -10.842 
321 106 2 0.0 9.311 12.071 -11.670 
322 107 1 0.0 20.766 15.753 -17.097 
323 107 2 0.0 20.687 15.766 -16.094 
324 107 2 0.0 20.783 15.826 -15.120 
325 108 3 0.0 68.470 62.322 -10.017 
326 108 2 0.0 68.242 61.829 -10.801 
327 108 2 0.0 67.968 61.481 -11.570 
328 109 3 0.0 6.715 4.339 -14.864 
329 109 2 0.0 7.127 4.076 -13.979 
330 109 2 0.0 7.529 4.157 -13.128 
331 110 3 0.0 76.117 17.276 -10.367 
332 110 2 0.0 75.605 17.370 -11.149 
333 110 2 0.0 75.233 17.674 -11.929 
334 111 1 0.0 31.770 68.600 -14.194 
335 111 2 0.0 31.628 68.116 -15.082 
336 111 2 0.0 31.839 67.511 -15.805 
337 112 3 0.0 14.914 21.484 -10.926 
338 112 2 0.0 14.798 21.500 -11.925 
339 112 2 0.0 14.406 21.706 -12.765 
340 113 1 0.0 73.797 50.663 -13.155 
341 113 2 0.0 73.500 51.043 -12.323 
342 113 2 0.0 73.410 51.005 -11.387 
343 114 1 0.0 76.511 6.301 -8.308 
344 114 2 0.0 76.314 6.431 -9.274 
345 114 2 0.0 76.014 6.455 -10.128 
346 115 1 0.0 56.456 21.387 -14.592 
347 115 2 0.0 56.732 21.215 -13.668 
348 115 2 0.0 56.770 21.290 -12.670 
349 116 3 0.0 16.459 1.255 -12.226 
350 116 2 0.0 16.456 1.562 -13.128 
351 116 2 0.0 16.255 1.773 -14.047 
352 117 3 0.0 15.097 5.417 -16.403 
353 117 2 0.0 15.334 5.221 -15.451 
354 117 2 0.0 15.463 5.134 -14.484 
355 118 1 0.0 65.858 75.602 -12.860 
356 118 2 0.0 66.113 75.434 -11.974 
357 118 2 0.0 66.263 75.454 -11.044 
358 119 1 0.0 60.725 38.464 -16.065 
359 119 2 0.0 60.498 38.307 -15.085 
360 119 2 0.0 60.440 38.503 -14.147 
361 120 1 0.0 22.634 74.800 -14.117 
362 120 2 0.0 22.530 74.947 -15.105 
363 120 2 0.0 22.287 75.053 -16.055 
364 121 3 0.0 71.230 2.303 -13.223 
365 121 2 0.0 71.459 2.365 -12.280 
366 121 2 0.0 71.742 2.370 -11.352 
367 122 3 0.0 17.110 1.035 -18.027 
368 122 2 0.0 17.240 1.158 -17.034 
369 122 2 0.0 17.180 1.217 -16.099 
370 123 3 0.0 29.602 7.399 -18.476 
371 123 2 0.0 28.910 7.818 -18.003 
372 123 2 0.0 28.709 8.659 -17.417 
373 124 1 0.0 51.828 8.027 -11.836 
374 124 2 0.0 52.110 7.343 -11.176 
375 124 2 0.0 52.416 6.879 -10.369 
376 125 3 0.0 20.253 70.924 -17.923 
377 125 2 0.0 20.370 71.172 -16.960 
378 125 2 0.0 20.898 70.996 -16.202 
379 126 3 0.0 12.976 24.939 -11.549 
380 126 2 0.0 12.894 25.450 -12.424 
381 126 2 0.0 12.959 25.829 -13.273 
382 127 3 0.0 21.863 76.862 -18.667 
383 127 2 0.0 22.396 77.191 -17.945 
384 127 2 0.0 22.742 77.470 -17.139 
385 128 3 0.0 3.324 10.331 -8.306 
386 128 2 0.0 3.568 10.589 -9.206 
387 128 2 0.0 3.445 10.855 -10.131 
388 129 3 0.0 34.621 65.695 -17.535 
389 129 2 0.0 34.671 65.223 -16.710 
390 129 2 0.0 34.434 64.563 -16.054 
391 130 3 0.0 26.688 49.217 -12.064 
392 130 2 0.0 26.331 49.438 -12.938 
393 130 2 0.0 25.873 49.721 -13.844 
394 131 3 0.0 15.524 7.210 -16.944 
395 131 2 0.0 15.820 7.022 -16.029 
396 131 2 0.0 16.265 6.701 -15.242 
397 132 1 0.0 17.176 69.912 -13.159 
398 132 2 0.0 16.877 69.786 -14.084 
399 132 2 0.0 16.390 69.678 -14.931 
400 133 3 0.0 12.645 29.364 -11.175 
401 133 2 0.0 12.432 29.495 -12.067 
402 133 2 0.0 12.400 29.815 -12.956 
403 134 3 0.0 16.623 43.863 -10.844 
404 134 2 0.0 16.791 43.915 -11.817 
405 134 2 0.0 17.064 43.910 -12.747 
406 135 3 0.0 25.799 76.282 -19.015 
407 135 2 0.0 25.597 76.795 -18.197 
408 135 2 0.0 25.269 77.006 -17.279 
409 136 3 0.0 5.365 75.256 -15.592 
410 136 2 0.0 5.587 74.703 -14.856 
411 136 2 0.0 5.928 74.355 -14.019 
412 137 1 0.0 75.406 56.713 -9.860 
413 137 2 0.0 75.551 56.801 -10.761 
414 137 2 0.0 75.818 57.036 -11.656 
415 138 3 0.0 34.078 33.909 -12.097 
416 138 2 0.0 34.170 33.598 -13.017 
417 138 2 0.0 34.122 33.200 -13.997 
418 139 3 0.0 38.861 27.884 -16.451 
419 139 2 0.0 38.693 28.168 -15.517 
420 139 2 0.0 38.501 28.437 -14.645 
421 140 3 0.0 28.956 4.002 -14.165 
422 140 2 0.0 28.649 3.783 -15.053 
423 140 2 0.0 28.591 3.622 -15.980 
424 141 1 0.0 33.915 37.890 -16.263 
425 141 2 0.0 33.655 38.015 -15.318 
426 141 2 0.0 33.548 38.227 -14.399 
427 142 3 0.0 19.466 14.126 -12.022 
428 142 2 0.0 18.922 13.748 -12.720 
429 142 2 0.0 18.547 13.556 -13.579 
430 143 1 0.0 70.888 36.610 -13.920 
431 143 2 0.0 71.177 36.294 -13.061 
432 143 2 0.0 71.362 36.094 -12.191 
433 144 1 0.0 20.903 9.418 -17.162 
434 144 2 0.0 20.994 9.071 -16.207 
435 144 2 0.0 21.084 8.938 -15.276 
436 145 1 0.0 29.624 52.919 -12.915 
437 145 2 0.0 29.587 52.800 -13.932 
438 145 2 0.0 29.487 52.480 -14.881 
439 146 3 0.0 47.252 4.260 -9.023 
440 146 2 0.0 47.427 4.199 -10.006 
441 146 2 0.0 47.405 4.378 -11.026 
442 147 3 0.0 4.450 3.522 -14.751 
443 147 2 0.0 4.713 3.226 -13.863 
444 147 2 0.0 4.783 2.961 -12.903 
445 148 3 0.0 46.018 10.580 -9.974 
446 148 2 0.0 46.209 10.630 -10.885 
447 148 2 0.0 46.277 10.481 -11.823 
448 149 1 0.0 29.237 23.276 -12.181 
449 149 2 0.0 29.302 23.468 -13.109 
450 149 2 0.0 29.358 23.693 -14.098 
451 150 3 0.0 28.620 2.309 -14.192 
452 150 2 0.0 28.601 1.962 -15.116 
453 150 2 0.0 28.623 1.467 -15.929 
454 151 3 0.0 4.738 71.391 -10.198 
455 151 2 0.0 4.753 71.532 -11.127 
456 151 2 0.0 4.470 71.509 -12.113 
457 152 1 0.0 30.485 1.761 -13.762 
458 152 2 0.0 30.558 1.932 -14.734 
459 152 2 0.0 30.784 2.005 -15.641 
460 153 3 0.0 51.031 33.163 -17.239 
461 153 2 0.0 50.878 33.937 -16.623 
462 153 2 0.0 50.990 34.785 -16.172 
463 154 1 0.0 4.594 77.134 -14.311 
464 154 2 0.0 5.157 76.886 -13.559 
465 154 2 0.0 5.461 76.949 -12.584 
466 155 1 0.0 30.512 77.363 -18.696 
467 155 2 0.0 30.536 77.171 -17.753 
468 155 2 0.0 30.520 76.949 -16.811 
469 156 1 0.0 25.101 4.002 -14.008 
470 156 2 0.0 25.219 4.051 -14.995 
471 156 2 0.0 25.316 4.289 -15.884 
472 157 1 0.0 43.908 77.801 -12.022 
473 157 2 0.0 43.666 77.636 -12.958 
474 157 2 0.0 43.389 77.256 -13.764 
475 158 1 0.0 33.000 31.983 -12.898 
476 158 2 0.0 33.258 32.122 -13.819 
477 158 2 0.0 33.107 32.223 -14.708 
478 159 1 0.0 33.936 3.547 -17.686 
479 159 2 0.0 33.663 3.902 -16.810 
480 159 2 0.0 33.295 4.121 -16.004 
481 160 1 0.0 15.934 25.074 -11.329 
482 160 2 0.0 16.291 25.126 -12.290 
483 160 2 0.0 16.535 25.159 -13.210 
484 161 3 0.0 4.199 10.058 -12.710 
485 161 2 0.0 3.685 10.236 -11.896 
486 161 2 0.0 3.201 10.557 -11.104 
487 162 3 0.0 38.412 28.262 -12.047 
488 162 2 0.0 38.752 28.123 -12.923 
489 162 2 0.0 39.080 28.131 -13.827 
490 163 1 0.0 61.668 15.667 -13.704 
491 163 2 0.0 61.378 16.096 -12.926 
492 163 2 0.0 61.178 16.258 -11.928 
493 164 3 0.0 43.640 19.561 -10.188 
494 164 2 0.0 43.879 19.473 -11.095 
495 164 2 0.0 44.153 19.577 -12.017 
496 165 1 0.0 62.103 3.226 -13.060 
497 165 2 0.0 62.081 3.474 -12.154 
498 165 2 0.0 62.098 3.530 -11.222 
499 166 1 0.0 34.622 41.194 -12.632 
500 166 2 0.0 34.430 41.206 -13.574 
501 166 2 0.0 34.199 41.215 -14.501 
502 167 1 0.0 47.934 18.565 -14.656 
503 167 2 0.0 48.309 18.992 -13.907 
504 167 2 0.0 48.631 19.370 -13.100 
505 168 3 0.0 50.101 18.893 -10.134 
506 168 2 0.0 50.125 18.191 -10.775 
507 168 2 0.0 50.235 17.428 -11.327 
508 169 3 0.0 37.298 6.440 -16.633 
509 169 2 0.0 36.966 6.081 -15.833 
510 169 2 0.0 36.774 5.592 -15.050 
511 170 1 0.0 4.456 61.649 -11.102 
512 170 2 0.0 4.508 61.825 -12.072 
513 170 2 0.0 4.527 62.169 -12.976 
514 171 1 0.0 47.335 22.832 -14.802 
515 171 2 0.0 47.382 23.078 -13.851 
516 171 2 0.0 47.246 23.391 -13.007 
517 172 1 0.0 30.966 18.265 -17.403 
518 172 2 0.0 31.550 18.373 -16.641 
519 172 2 0.0 31.992 18.399 -15.810 
520 173 1 0.0 6.166 11.236 -13.497 
521 173 2 0.0 6.399 11.360 -12.506 
522 173 2 0.0 6.711 11.659 -11.608 
523 174 1 0.0 20.670 72.422 -14.248 
524 174 2 0.0 20.100 72.005 -14.941 
525 174 2 0.0 19.516 71.908 -15.682 
526 175 1 0.0 25.681 73.517 -18.897 
527 175 2 0.0 25.300 73.503 -18.001 
528 175 2 0.0 25.068 73.728 -17.134 
529 176 3 0.0 44.295 37.468 -13.047 
530 176 2 0.0 44.707 37.037 -13.855 
531 176 2 0.0 44.783 36.941 -14.777 
532 177 1 0.0 51.566 9.068 -13.788 
533 177 2 0.0 51.445 8.847 -12.863 
534 177 2 0.0 51.235 8.754 -11.918 
535 178 3 0.0 43.562 40.973 -18.182 
536 178 2 0.0 43.489 41.004 -17.280 
537 178 2 0.0 43.444 41.084 -16.329 
538 179 3 0.0 65.312 9.888 -7.747 
539 179 2 0.0 65.602 9.671 -8.675 
540 179 2 0.0 65.876 9.489 -9.581 
541 180 1 0.0 65.882 7.909 -8.251 
542 180 2 0.0 65.967 7.654 -9.246 
543 180 2 0.0 65.869 7.691 -10.228 
544 181 3 0.0 32.123 30.921 -12.322 
545 181 2 0.0 32.137 30.927 -13.348 
546 181 2 0.0 32.215 31.133 -14.277 
547 182 3 0.0 73.463 13.259 -9.343 
548 182 2 0.0 73.027 13.463 -10.202 
549 182 2 0.0 72.719 13.684 -11.026 
550 183 1 0.0 50.837 2.268 -12.884 
551 183 2 0.0 50.409 1.769 -12.212 
552 183 2 0.0 49.793 1.417 -11.552 
553 184 3 0.0 46.075 16.317 -9.193 
554 184 2 0.0 46.287 16.373 -10.134 
555 184 2 0.0 46.513 16.344 -11.142 
556 185 1 0.0 27.265 24.378 -17.486 
557 185 2 0.0 27.163 24.511 -16.505 
558 185 2 0.0 26.927 24.568 -15.611 
559 186 3 0.0 69.073 19.971 -8.398 
560 186 2 0.0 69.118 20.005 -9.359 
561 186 2 0.0 69.200 19.885 -10.303 
562 187 1 0.0 54.438 28.858 -15.635 
563 187 2 0.0 54.405 29.433 -14.923 
564 187 2 0.0 53.987 29.783 -14.014 
565 188 1 0.0 38.681 19.502 -14.946 
566 188 2 0.0 38.727 19.344 -14.010 
567 188 2 0.0 38.813 19.304 -13.092 
568 189 1 0.0 52.693 72.134 -15.005 
569 189 2 0.0 52.539 72.050 -14.069 
570 189 2 0.0 52.380 71.869 -13.162 
571 190 3 0.0 62.679 75.536 -8.246 
572 190 2 0.0 62.651 75.469 -9.198 
573 190 2 0.0 62.778 75.595 -10.155 
574 191 1 0.0 59.251 10.891 -13.807 
575 191 2 0.0 59.331 10.773 -12.891 
576 191 2 0.0 59.027 10.782 -11.986 
577 192 1 0.0 30.306 22.238 -17.040 
578 192 2 0.0 30.138 22.485 -16.107 
579 192 2 0.0 29.763 22.761 -15.254 
580 193 3 0.0 11.324 2.034 -11.239 
581 193 2 0.0 11.184 2.066 -12.259 
582 193 2 0.0 11.160 2.084 -13.234 
583 194 1 0.0 6.398 26.349 -10.091 
584 194 2 0.0 6.740 26.363 -10.959 
585 194 2 0.0 6.775 26.488 -11.947 
586 195 1 0.0 69.885 1.547 -13.485 
587 195 2 0.0 69.740 1.306 -12.608 
588 195 2 0.0 69.757 1.245 -11.688 
589 196 3 0.0 11.240 9.745 -14.571 
590 196 2 0.0 11.124 9.453 -13.681 
591 196 2 0.0 11.258 9.327 -12.784 
592 197 1 0.0 27.177 5.780 -18.517 
593 197 2 0.0 26.930 5.838 -17.538 
594 197 2 0.0 26.671 5.669 -16.566 
595 198 1 0.0 41.092 10.037 -10.085 
596 198 2 0.0 41.293 9.973 -11.018 
597 198 2 0.0 41.291 10.163 -11.979 
598 199 3 0.0 72.621 78.646 -9.199 
599 199 2 0.0 71.939 78.877 -9.810 
600 199 2 0.0 71.566 1.052 -10.618 
601 200 1 0.0 67.243 19.232 -13.408 
602 200 2 0.0 66.874 19.247 -12.422 
603 200 2 0.0 66.624 19.379 -11.501 
604 201 3 0.0 45.456 42.892 -17.094 
605 201 2 0.0 45.918 43.223 -16.312 
606 201 2 0.0 46.379 43.628 -15.618 
607 202 3 0.0 23.564 23.519 -11.988 
608 202 2 0.0 23.454 23.143 -12.886 
609 202 2 0.0 22.990 23.188 -13.778 
610 203 1 0.0 56.191 33.949 -16.688 
611 203 2 0.0 56.416 33.944 -15.776 
612 203 2 0.0 56.324 34.015 -14.781 
613 204 3 0.0 0.971 9.301 -8.319 
614 204 2 0.0 1.114 8.731 -9.110 
615 204 2 0.0 1.105 8.345 -10.008 
616 205 3 0.0 69.066 7.869 -8.056 
617 205 2 0.0 68.799 8.165 -8.942 
618 205 2 0.0 68.520 8.245 -9.842 
619 206 1 0.0 65.801 76.392 -7.713 
620 206 2 0.0 65.765 76.496 -8.657 
621 206 2 0.0 65.856 76.556 -9.602 
622 207 1 0.0 75.741 64.446 -9.356 
623 207 2 0.0 75.262 64.372 -10.215 
624 207 2 0.0 74.785 64.261 -11.134 
625 208 1 0.0 1.609 44.943 -12.489 
626 208 2 0.0 1.530 45.512 -11.717 
627 208 2 0.0 1.835 45.818 -10.852 
628 209 1 0.0 57.974 22.703 -14.631 
629 209 2 0.0 57.923 22.858 -13.643 
630 209 2 0.0 57.838 22.832 -12.694 
631 210 3 0.0 61.466 69.248 -10.958 
632 210 2 0.0 61.084 69.925 -11.510 
633 210 2 0.0 61.055 70.762 -12.164 
634 211 3 0.0 54.759 24.789 -14.628 
635 211 2 0.0 54.189 24.942 -13.889 
636 211 2 0.0 53.860 25.069 -13.000 
637 212 3 0.0 33.843 11.570 -12.662 
638 212 2 0.0 34.402 12.064 -13.359 
639 212 2 0.0 34.793 12.576 -14.127 
640 213 1 0.0 59.550 14.516 -8.784 
641 213 2 0.0 59.619 15.030 -9.583 
642 213 2 0.0 59.477 15.131 -10.553 
643 214 1 0.0 72.559 7.498 -8.923 
644 214 2 0.0 73.098 7.622 -9.779 
645 214 2 0.0 73.534 7.581 -10.633 
646 215 3 0.0 48.312 68.705 -16.731 
647 215 2 0.0 48.398 68.459 -15.804 
648 215 2 0.0 48.178 68.182 -14.908 
649 216 3 0.0 54.646 69.771 -11.261 
650 216 2 0.0 54.525 70.510 -11.885 
651 216 2 0.0 54.309 71.201 -12.491 
652 217 1 0.0 1.778 68.862 -15.002 
653 217 2 0.0 1.881 68.626 -14.065 
654 217 2 0.0 1.903 68.203 -13.191 
655 218 3 0.0 40.424 15.020 -9.447 
656 218 2 0.0 40.400 14.960 -10.452 
657 218 2 0.0 40.635 14.803 -11.407 
658 219 1 0.0 68.525 39.897 -13.923 
659 219 2 0.0 68.462 39.827 -12.966 
660 219 2 0.0 68.484 39.822 -11.969 
661 220 1 0.0 0.873 73.465 -14.048 
662 220 2 0.0 0.745 73.072 -13.196 
663 220 2 0.0 0.748 72.699 -12.334 
664 221 1 0.0 70.813 72.885 -13.480 
665 221 2 0.0 70.660 73.036 -12.499 
666 221 2 0.0 70.278 72.952 -11.598 
667 222 1 0.0 2.767 8.893 -9.220 
668 222 2 0.0 2.585 8.793 -10.136 
669 222 2 0.0 2.432 8.800 -11.033 
670 223 3 0.0 65.971 21.922 -13.760 
671 223 2 0.0 65.476 21.826 -12.968 
672 223 2 0.0 65.118 21.714 -12.139 
673 224 1 0.0 53.161 25.035 -15.280 
674 224 2 0.0 53.135 25.344 -14.387 
675 224 2 0.0 52.899 25.669 -13.460 
676 225 1 0.0 37.495 24.655 -16.424 
677 225 2 0.0 37.340 24.674 -15.449 
678 225 2 0.0 37.437 24.741 -14.501 
679 226 1 0.0 8.796 1.281 -15.449 
680 226 2 0.0 9.088 1.490 -14.570 
681 226 2 0.0 9.116 1.614 -13.560 
682 227 3 0.0 7.046 74.883 -15.821 
683 227 2 0.0 6.997 74.752 -14.882 
684 227 2 0.0 6.975 74.365 -14.052 
685 228 3 0.0 66.711 1.333 -13.031 
686 228 2 0.0 66.897 1.318 -12.042 
687 228 2 0.0 67.067 1.213 -11.094 
688 229 3 0.0 7.101 11.815 -13.442 
689 229 2 0.0 7.452 11.559 -12.602 
690 229 2 0.0 7.953 11.383 -11.817 
691 230 1 0.0 11.649 65.377 -16.834 
692 230 2 0.0 11.818 65.423 -15.846 
693 230 2 0.0 11.652 65.412 -14.892 
694 231 3 0.0 58.208 14.325 -13.940 
695 231 2 0.0 58.446 14.289 -13.030 
696 231 2 0.0 58.581 14.475 -12.117 
697 232 1 0.0 61.758 11.794 -8.334 
698 232 2 0.0 62.004 11.525 -9.244 
699 232 2 0.0 62.359 11.326 -10.139 
700 233 3 0.0 65.516 62.180 -9.603 
701 233 2 0.0 66.029 61.980 -10.386 
702 233 2 0.0 66.231 61.669 -11.322 
703 234 3 0.0 21.173 71.105 -18.621 
704 234 2 0.0 21.191 71.487 -17.702 
705 234 2 0.0 21.285 71.770 -16.828 
706 235 3 0.0 76.352 4.349 -13.530 
707 235 2 0.0 77.028 4.119 -12.894 
708 235 2 0.0 77.508 3.826 -12.147 
709 236 1 0.0 1.141 33.392 -13.988 
710 236 2 0.0 0.890 33.713 -13.090 
711 236 2 0.0 0.854 34.114 -12.240 
712 237 1 0.0 22.089 21.682 -17.117 
713 237 2 0.0 22.152 21.643 -16.163 
714 237 2 0.0 22.364 21.369 -15.297 
715 238 3 0.0 13.288 74.688 -11.981 
716 238 2 0.0 13.197 74.681 -12.966 
717 238 2 0.0 12.867 74.954 -13.863 
718 239 1 0.0 74.611 18.505 -9.600 
719 239 2 0.0 75.088 19.077 -10.171 
720 239 2 0.0 75.356 19.750 -10.836 
721 240 1 0.0 8.595 15.690 -10.071 
722 240 2 0.0 9.064 15.920 -10.894 
723 240 2 0.0 9.227 15.775 -11.789 
724 241 3 0.0 10.169 8.305 -15.533 
725 241 2 0.0 9.931 8.124 -14.650 
726 241 2 0.0 9.427 8.044 -13.785 
727 242 3 0.0 28.391 22.941 -12.817 
728 242 2 0.0 28.470 23.172 -13.723 
729 242 2 0.0 28.622 23.212 -14.684 
730 243 3 0.0 12.001 10.306 -15.002 
731 243 2 0.0 12.065 10.007 -14.082 
732 243 2 0.0 12.159 9.857 -13.166 
733 244 3 0.0 6.985 20.070 -9.655 
734 244 2 0.0 6.846 20.318 -10.648 
735 244 2 0.0 6.862 20.198 -11.544 
736 245 3 0.0 75.893 47.219 -13.016 
737 245 2 0.0 75.925 47.031 -12.111 
738 245 2 0.0 76.159 46.635 -11.329 
739 246 1 0.0 16.554 7.074 -16.883 
740 246 2 0.0 16.805 6.631 -16.076 
741 246 2 0.0 17.182 6.046 -15.306 
742 247 1 0.0 20.238 22.639 -16.510 
743 247 2 0.0 19.901 22.800 -15.623 
744 247 2 0.0 19.639 23.003 -14.727 
745 248 3 0.0 3.851 73.223 -15.297 
746 248 2 0.0 3.972 73.197 -14.288 
747 248 2 0.0 4.252 73.206 -13.323 
748 249 3 0.0 1.360 60.326 -14.165 
749 249 2 0.0 1.179 60.769 -13.313 
750 249 2 0.0 1.023 61.195 -12.458 
751 250 1 0.0 12.071 5.097 -11.526 
752 250 2 0.0 11.624 5.227 -12.336 
753 250 2 0.0 11.133 5.335 -13.133 
754 251 1 0.0 66.372 16.208 -12.647 
755 251 2 0.0 66.207 16.629 -11.755 
756 251 2 0.0 65.888 17.325 -11.237 
757 252 3 0.0 76.301 28.904 -8.956 
758 252 2 0.0 76.320 28.742 -9.847 
759 252 2 0.0 75.920 28.343 -10.659 
760 253 1 0.0 24.493 72.633 -14.424 
761 253 2 0.0 24.734 72.973 -15.284 
762 253 2 0.0 24.848 73.191 -16.234 
763 254 1 0.0 15.141 17.549 -10.378 
764 254 2 0.0 14.670 17.396 -11.160 
765 254 2 0.0 14.431 17.064 -12.042 
766 255 3 0.0 74.740 22.232 -14.118 
767 255 2 0.0 75.093 21.937 -13.277 
768 255 2 0.0 75.272 21.831 -12.380 
769 256 1 0.0 72.134 76.287 -9.288 
770 256 2 0.0 71.764 76.237 -10.192 
771 256 2 0.0 71.465 76.286 -11.072 
772 257 3 0.0 22.795 8.937 -17.446 
773 257 2 0.0 22.584 8.649 -16.519 
774 257 2 0.0 22.438 8.406 -15.614 
775 258 3 0.0 31.649 76.842 -13.640 
776 258 2 0.0 31.936 76.864 -14.639 
777 258 2 0.0 32.221 76.805 -15.596 
778 259 3 0.0 10.884 28.449 -15.303 
779 259 2 0.0 10.892 28.529 -14.337 
780 259 2 0.0 10.549 28.547 -13.361 
781 260 3 0.0 74.359 68.666 -8.565 
782 260 2 0.0 74.256 68.685 -9.523 
783 260 2 0.0 74.024 68.566 -10.482 
784 261 3 0.0 4.471 18.196 -9.997 
785 261 2 0.0 4.375 17.877 -10.863 
786 261 2 0.0 4.447 17.806 -11.811 
787 262 3 0.0 25.776 19.061 -12.229 
788 262 2 0.0 25.581 19.091 -13.201 
789 262 2 0.0 25.501 19.162 -14.163 
790 263 1 0.0 17.121 24.304 -16.346 
791 263 2 0.0 17.300 24.265 -15.395 
792 263 2 0.0 17.262 24.235 -14.466 
793 264 1 0.0 50.269 28.003 -10.932 
794 264 2 0.0 50.323 27.693 -11.819 
795 264 2 0.0 50.219 27.364 -12.691 
796 265 3 0.0 28.203 3.156 -14.302 
797 265 2 0.0 28.151 2.867 -15.215 
798 265 2 0.0 28.256 2.387 -16.018 
799 266 1 0.0 72.395 45.042 -13.615 
800 266 2 0.0 72.130 45.183 -12.670 
801 266 2 0.0 72.469 45.553 -11.799 
802 267 3 0.0 18.690 38.436 -12.742 
803 267 2 0.0 18.759 38.654 -13.648 
804 267 2 0.0 18.958 39.250 -14.419 
805 268 1 0.0 27.157 20.960 -12.557 
806 268 2 0.0 27.206 20.644 -13.455 
807 268 2 0.0 27.294 20.499 -14.403 
808 269 1 0.0 37.368 75.349 -17.837 
809 269 2 0.0 37.199 75.280 -16.837 
810 269 2 0.0 36.900 75.047 -15.968 
811 270 1 0.0 27.336 15.099 -16.611 
812 270 2 0.0 27.230 14.526 -15.818 
813 270 2 0.0 27.257 14.229 -14.853 
814 271 1 0.0 20.659 20.213 -12.417 
815 271 2 0.0 21.363 20.267 -13.081 
816 271 2 0.0 22.093 20.397 -13.780 
817 272 3 0.0 33.657 69.572 -14.144 
818 272 2 0.0 33.460 69.534 -15.047 
819 272 2 0.0 33.354 69.409 -16.056 
820 273 3 0.0 18.422 62.412 -13.011 
821 273 2 0.0 18.587 62.279 -13.928 
822 273 2 0.0 18.688 61.993 -14.806 
823 274 3 0.0 36.639 25.091 -11.693 
824 274 2 0.0 36.956 24.884 -12.641 